<?xml version="1.0"?>
<VTKFile type="ImageData" version="0.1" byte_order="LittleEndian">
  <ImageData WholeExtent="0 179 0 95 0 0" Origin="-2 -2.4 0" Spacing="0.05586592 0.05052632 1">
    <Piece Extent="0 179 0 95 0 0">
      <PointData Vectors="velocity" Scalars="speed">
        <DataArray type="Float32" Name="velocity" NumberOfComponents="3" format="ascii">1.003741 -0.02040782 0 1.004407 -0.02076476 0 1.00511 -0.02110476 0 1.005852 -0.0214248 0 1.006633 -0.02172163 0 1.007454 -0.02199179 0 1.008314 -0.02223162 0 1.009214 -0.02243726 0 1.010152 -0.02260464 0 1.011128 -0.02272958 0 1.01214 -0.02280772 0 1.013187 -0.02283465 0 1.014266 -0.0228059 0 1.015374 -0.02271697 0 1.016507 -0.02256347 0 1.017663 -0.02234109 0 1.018836 -0.02204576 0 1.020021 -0.02167365 0 1.021212 -0.02122133 0 1.022404 -0.0206858 0 1.023588 -0.02006461 0 1.024758 -0.01935595 0 1.025906 -0.01855873 0 1.027024 -0.01767266 0 1.028103 -0.01669833 0 1.029135 -0.0156373 0 1.030111 -0.0144921 0 1.031023 -0.01326627 0 1.031862 -0.01196441 0 1.03262 -0.01059212 0 1.033291 -0.009156017 0 1.033867 -0.007663606 0 1.034342 -0.006123255 0 1.034711 -0.004544063 0 1.034972 -0.002935738 0 1.03512 -0.00130845 0 1.035154 0.0003273252 0 1.035074 0.001960975 0 1.034881 0.003581921 0 1.034576 0.005179791 0 1.034164 0.006744581 0 1.033648 0.008266809 0 1.033034 0.009737658 0 1.032327 0.01114909 0 1.031536 0.01249394 0 1.030667 0.013766 0 1.029728 0.01496008 0 1.028729 0.01607198 0 1.027677 0.01709858 0 1.026581 0.01803773 0 1.02545 0.01888828 0 1.024292 0.01965 0 1.023116 0.0203235 0 1.021927 0.02091017 0 1.020735 0.02141209 0 1.019546 0.02183194 0 1.018365 0.0221729 0 1.017198 0.02243857 0 1.016051 0.0226329 0 1.014927 0.02276005 0 1.01383 0.02282437 0 1.012764 0.02283032 0 1.011731 0.02278237 0 1.010733 0.02268499 0 1.009772 0.02254258 0 1.008849 0.02235942 0 1.007965 0.02213965 0 1.007121 0.02188725 0 1.006316 0.02160601 0 1.00555 0.02129948 0 1.004824 0.02097103 0 1.004136 0.02062376 0 1.003486 0.02026057 0 1.002873 0.0198841 0 1.002295 0.01949679 0 1.001752 0.01910085 0 1.001243 0.01869829 0 1.000766 0.01829094 0 1.000319 0.01788051 0 0.9999026 0.01746857 0 0.9995142 0.01705661 0 0.9991526 0.01664609 0 0.9988167 0.01623845 0 0.9985052 0.01583515 0 0.9982166 0.01543765 0 0.9979499 0.01504748 0 0.9977038 0.01466613 0 0.9974771 0.01429508 0 0.9972688 0.0139357 0 0.9970778 0.01358918 0 0.9969029 0.01325643 0 0.9967434 0.01293794 0 0.9965981 0.01263369 0 0.9964662 0.01234303 0 0.9963469 0.01206458 0 0.9962393 0.01179619 0 0.9961427 0.01153489 0 0.9960564 0.01127692 0 0.9959796 0.01101789 0 0.9959118 0.01075286 0 0.9958523 0.01047664 0 0.9958005 0.01018403 0 0.9957558 0.009870219 0 0.9957179 0.009531139 0 0.9956862 0.009163875 0 0.9956602 0.008767066 0 0.9956395 0.008341262 0 0.9956237 0.007889227 0 0.9956125 0.007416141 0 0.9956054 0.006929699 0 0.9956022 0.006440058 0 0.9956025 0.005959638 0 0.995606 0.005502769 0 0.9956124 0.005085165 0 0.9956216 0.004723269 0 0.9956331 0.004433456 0 0.9956469 0.004231159 0 0.9956626 0.004129927 0 0.9956801 0.004140484 0 0.9956991 0.004269822 0 0.9957195 0.004520402 0 0.995741 0.004889489 0 0.9957636 0.005368696 0 0.995787 0.005943761 0 0.9958112 0.006594598 0 0.9958358 0.007295641 0 0.9958609 0.008016485 0 0.9958862 0.008722828 0 0.9959117 0.009377674 0 0.9959372 0.009942773 0 0.9959626 0.01038024 0 0.9959878 0.01065428 0 0.9960127 0.01073298 0 0.9960372 0.01059002 0 0.9960611 0.01020629 0 0.9960845 0.009571279 0 0.9961072 0.00868421 0 0.9961291 0.007554776 0 0.9961502 0.006203495 0 0.9961703 0.004661604 0 0.9961895 0.002970482 0 0.9962076 0.001180595 0 0.9962246 -0.0006500071 0 0.9962404 -0.002457612 0 0.9962549 -0.004175112 0 0.9962682 -0.005734547 0 0.9962802 -0.007069814 0 0.9962908 -0.008119453 0 0.9963 -0.008829374 0 0.9963077 -0.009155429 0 0.996314 -0.009065694 0 0.9963188 -0.008542369 0 0.996322 -0.007583192 0 0.9963237 -0.006202284 0 0.9963238 -0.004430385 0 0.9963224 -0.002314428 0 0.9963193 8.354713e-05 0 0.9963147 0.002688122 0 0.9963084 0.005412824 0 0.9963006 0.008162975 0 0.9962911 0.01083897 0 0.99628 0.01333985 0 0.9962674 0.01556711 0 0.9962531 0.01742846 0 0.9962373 0.01884154 0 0.9962199 0.01973736 0 0.996201 0.02006332 0 0.9961805 0.01978572 0 0.9961586 0.01889165 0 0.9961352 0.01739006 0 0.9961103 0.01531214 0 0.996084 0.01271084 0 0.9960563 0.00965953 0 0.9960273 0.00624988 0 0.9959969 0.002589036 0 0.9959653 -0.001203897 0 0.9959324 -0.005001869 0 0.9958983 -0.008674297 0 0.995863 -0.0120917 0 0.9958265 -0.01513042 0 1.003396 -0.02099807 0 1.004075 -0.02139023 0 1.004795 -0.02176625 0 1.005556 -0.02212295 0 1.006359 -0.0224569 0 1.007206 -0.02276441 0 1.008095 -0.02304157 0 1.009028 -0.02328421 0 1.010003 -0.02348796 0 1.01102 -0.02364824 0 1.012077 -0.02376031 0 1.013173 -0.0238193 0 1.014306 -0.02382025 0 1.015471 -0.02375819 0 1.016667 -0.02362815 0 1.017889 -0.02342529 0 1.019132 -0.02314495 0 1.02039 -0.02278275 0 1.021658 -0.02233466 0 1.022929 -0.02179717 0 1.024195 -0.02116729 0 1.025448 -0.02044276 0 1.02668 -0.0196221 0 1.027882 -0.01870468 0 1.029044 -0.01769091 0 1.030157 -0.0165822 0 1.031211 -0.0153811 0 1.032197 -0.01409131 0 1.033106 -0.01271771 0 1.033928 -0.01126633 0 1.034656 -0.00974435 0 1.035282 -0.008159991 0 1.035798 -0.006522456 0 1.0362 -0.004841797 0 1.036484 -0.003128766 0 1.036645 -0.001394652 0 1.036682 0.0003488997 0 1.036595 0.002090088 0 1.036385 0.00381715 0 1.036054 0.005518561 0 1.035605 0.007183225 0 1.035044 0.008800651 0 1.034377 0.01036111 0 1.03361 0.01185578 0 1.032752 0.01327685 0 1.031812 0.01461758 0 1.030797 0.01587242 0 1.029718 0.01703694 0 1.028584 0.01810792 0 1.027405 0.01908326 0 1.02619 0.01996196 0 1.024949 0.02074405 0 1.023689 0.02143049 0 1.022421 0.0220231 0 1.02115 0.02252444 0 1.019885 0.02293772 0 1.018632 0.02326667 0 1.017397 0.02351547 0 1.016186 0.02368863 0 1.015001 0.0237909 0 1.013848 0.02382716 0 1.01273 0.0238024 0 1.01165 0.0237216 0 1.010608 0.02358969 0 1.009608 0.02341149 0 1.00865 0.02319168 0 1.007734 0.02293475 0 1.006862 0.02264501 0 1.006033 0.02232648 0 1.005246 0.02198298 0 1.004502 0.02161805 0 1.003799 0.02123497 0 1.003136 0.02083673 0 1.002512 0.02042609 0 1.001927 0.02000552 0 1.001378 0.0195773 0 1.000864 0.01914346 0 1.000385 0.01870587 0 0.9999373 0.01826627 0 0.9995209 0.01782627 0 0.9991338 0.01738745 0 0.9987747 0.01695139 0 0.9984422 0.01651966 0 0.9981347 0.0160939 0 0.997851 0.01567582 0 0.9975897 0.01526716 0 0.9973495 0.01486968 0 0.9971291 0.01448507 0 0.9969275 0.01411491 0 0.9967433 0.01376048 0 0.9965757 0.01342272 0 0.9964234 0.01310199 0 0.9962855 0.01279799 0 0.9961612 0.01250963 0 0.9960494 0.01223487 0 0.9959494 0.01197075 0 0.9958603 0.01171331 0 0.9957815 0.01145771 0 0.9957121 0.01119835 0 0.9956516 0.01092911 0 0.9955992 0.01064363 0 0.9955545 0.0103357 0 0.9955168 0.009999701 0 0.9954857 0.009631045 0 0.9954606 0.009226662 0 0.995441 0.00878545 0 0.9954266 0.008308681 0 0.9954169 0.00780031 0 0.9954116 0.007267178 0 0.9954102 0.006719067 0 0.9954125 0.006168589 0 0.9954181 0.005630893 0 0.9954267 0.005123197 0 0.995438 0.004664134 0 0.9954518 0.004272942 0 0.9954677 0.003968527 0 0.9954857 0.003768425 0 0.9955053 0.003687731 0 0.9955265 0.003738026 0 0.995549 0.003926381 0 0.9955726 0.004254484 0 0.9955972 0.004717955 0 0.9956225 0.005305897 0 0.9956484 0.006000729 0 0.9956748 0.006778332 0 0.9957014 0.00760853 0 0.9957282 0.008455899 0 0.9957549 0.009280904 0 0.9957816 0.01004132 0 0.995808 0.0106939 0 0.995834 0.01119622 0 0.9958596 0.01150862 0 0.9958846 0.01159619 0 0.9959089 0.01143065 0 0.9959324 0.01099209 0 0.9959551 0.01027044 0 0.9959767 0.009266664 0 0.9959974 0.00799342 0 0.9960169 0.006475388 0 0.9960353 0.004749015 0 0.9960524 0.002861768 0 0.9960682 0.0008708671 0 0.9960826 -0.001158474 0 0.9960956 -0.003155236 0 0.9961071 -0.005045142 0 0.996117 -0.00675349 0 0.9961254 -0.008208134 0 0.9961322 -0.009342516 0 0.9961374 -0.01009862 0 0.9961409 -0.0104297 0 0.9961427 -0.0103027 0 0.9961428 -0.009700247 0 0.9961412 -0.008622013 0 0.9961379 -0.007085569 0 0.9961327 -0.005126482 0 0.9961259 -0.002797738 0 0.9961172 -0.0001684382 0 0.9961068 0.002678177 0 0.9960947 0.005647337 0 0.9960808 0.00863589 0 0.9960652 0.01153589 0 0.9960478 0.01423851 0 0.9960287 0.01663806 0 0.996008 0.01863611 0 0.9959855 0.02014537 0 0.9959615 0.02109335 0 0.9959358 0.02142546 0 0.9959085 0.02110767 0 0.9958796 0.02012832 0 0.9958493 0.01849924 0 0.9958174 0.01625596 0 0.9957841 0.01345709 0 0.9957494 0.01018277 0 0.9957134 0.006532338 0 0.995676 0.002621181 0 0.9956373 -0.001423046 0 0.9955973 -0.005464751 0 0.9955562 -0.009365112 0 0.9955139 -0.01298701 0 0.9954706 -0.0162 0 1.003019 -0.02159909 0 1.00371 -0.02202887 0 1.004445 -0.02244352 0 1.005225 -0.02283969 0 1.006051 -0.02321377 0 1.006923 -0.02356184 0 1.007842 -0.02387973 0 1.008807 -0.02416296 0 1.00982 -0.02440681 0 1.010879 -0.02460631 0 1.011983 -0.0247563 0 1.01313 -0.02485141 0 1.014318 -0.02488616 0 1.015545 -0.02485501 0 1.016806 -0.02475242 0 1.018098 -0.0245729 0 1.019415 -0.02431115 0 1.020752 -0.02396214 0 1.022102 -0.02352121 0 1.023458 -0.02298418 0 1.024812 -0.02234749 0 1.026155 -0.02160833 0 1.027478 -0.02076472 0 1.028771 -0.01981567 0 1.030024 -0.01876128 0 1.031226 -0.01760281 0 1.032367 -0.01634279 0 1.033435 -0.01498506 0 1.034421 -0.01353477 0 1.035314 -0.01199843 0 1.036105 -0.01038383 0 1.036786 -0.008699977 0 1.037348 -0.006957021 0 1.037787 -0.005166078 0 1.038096 -0.003339082 0 1.038271 -0.001488595 0 1.038312 0.0003724126 0 1.038217 0.002230786 0 1.037988 0.004073414 0 1.037627 0.005887466 0 1.037138 0.007660605 0 1.036527 0.009381201 0 1.035801 0.01103851 0 1.034968 0.01262282 0 1.034037 0.01412561 0 1.033017 0.01553958 0 1.031918 0.01685877 0 1.030752 0.01807855 0 1.029528 0.01919562 0 1.028258 0.02020796 0 1.026952 0.02111478 0 1.02562 0.02191644 0 1.024271 0.02261432 0 1.022915 0.02321076 0 1.021561 0.02370889 0 1.020215 0.02411253 0 1.018885 0.02442605 0 1.017577 0.02465428 0 1.016297 0.02480238 0 1.01505 0.02487574 0 1.013838 0.02487987 0 1.012666 0.02482033 0 1.011536 0.02470264 0 1.01045 0.02453225 0 1.009409 0.02431444 0 1.008415 0.02405431 0 1.007468 0.02375673 0 1.006568 0.02342631 0 1.005715 0.02306738 0 1.004908 0.02268397 0 1.004146 0.02227981 0 1.003428 0.02185832 0 1.002754 0.02142261 0 1.002121 0.0209755 0 1.001529 0.02051952 0 1.000975 0.02005696 0 1.000458 0.01958987 0 0.9999773 0.01912016 0 0.9995301 0.01864959 0 0.9991151 0.01817986 0 0.9987306 0.01771265 0 0.9983752 0.01724969 0 0.9980471 0.01679276 0 0.9977449 0.01634376 0 0.9974671 0.01590467 0 0.9972122 0.01547756 0 0.9969789 0.01506448 0 0.9967659 0.01466743 0 0.9965718 0.01428818 0 0.9963955 0.01392813 0 0.9962358 0.01358818 0 0.9960916 0.01326851 0 0.995962 0.0129684 0 0.9958458 0.01268613 0 0.9957423 0.01241886 0 0.9956504 0.01216256 0 0.9955695 0.01191204 0 0.9954986 0.01166112 0 0.9954372 0.01140277 0 0.9953845 0.01112944 0 0.9953398 0.01083344 0 0.9953025 0.01050743 0 0.9952722 0.01014493 0 0.9952481 0.009740836 0 0.99523 0.00929204 0 0.9952171 0.008797887 0 0.9952092 0.008260632 0 0.9952058 0.007685764 0 0.9952066 0.007082183 0 0.995211 0.0064622 0 0.9952189 0.005841346 0 0.9952298 0.005237966 0 0.9952435 0.00467261 0 0.9952597 0.004167229 0 0.995278 0.003744192 0 0.9952983 0.003425181 0 0.9953203 0.003229985 0 0.9953438 0.003175278 0 0.9953685 0.003273419 0 0.9953942 0.003531357 0 0.9954208 0.0039497 0 0.995448 0.004522009 0 0.9954757 0.005234379 0 0.9955037 0.00606535 0 0.9955318 0.006986166 0 0.9955599 0.00796142 0 0.9955879 0.008950059 0 0.9956156 0.009906742 0 0.9956428 0.0107835 0 0.9956695 0.01153168 0 0.9956955 0.01210396 0 0.9957208 0.01245663 0 0.9957451 0.01255168 0 0.9957685 0.01235892 0 0.9957908 0.01185781 0 0.9958119 0.01103902 0 0.9958317 0.009905626 0 0.9958503 0.00847375 0 0.9958674 0.006772782 0 0.995883 0.00484498 0 0.9958971 0.002744521 0 0.9959096 0.0005359903 0 0.9959205 -0.001707641 0 0.9959296 -0.003907506 0 0.9959371 -0.005981696 0 0.9959427 -0.007848384 0 0.9959465 -0.009429101 0 0.9959485 -0.01065202 0 0.9959486 -0.01145514 0 0.9959468 -0.01178918 0 0.9959431 -0.01162013 0 0.9959375 -0.01093125 0 0.99593 -0.009724533 0 0.9959205 -0.008021392 0 0.9959091 -0.005862687 0 0.9958958 -0.003307942 0 0.9958806 -0.0004338211 0 0.9958634 0.002668124 0 0.9958444 0.005894364 0 0.9958235 0.009132859 0 0.9958007 0.01226697 0 0.9957761 0.0151797 0 0.9957497 0.01775798 0 0.9957215 0.01989712 0 0.9956916 0.02150485 0 0.9956599 0.02250521 0 0.9956266 0.02284176 0 0.9955917 0.0224803 0 0.9955551 0.02141069 0 0.9955171 0.01964789 0 0.9954775 0.01723209 0 0.9954365 0.01422789 0 0.995394 0.01072255 0 0.9953502 0.006823371 0 0.9953052 0.002654283 0 0.9952588 -0.001648252 0 0.9952113 -0.005939878 0 0.9951626 -0.01007337 0 0.9951128 -0.01390385 0 0.995062 -0.01729402 0 1.002606 -0.02220995 0 1.00331 -0.02267986 0 1.004059 -0.02313586 0 1.004857 -0.02357447 0 1.005704 -0.02399187 0 1.006601 -0.02438393 0 1.007549 -0.0247462 0 1.008549 -0.02507388 0 1.009599 -0.02536191 0 1.010701 -0.02560488 0 1.011853 -0.02579716 0 1.013053 -0.02593287 0 1.014299 -0.02600597 0 1.015589 -0.02601029 0 1.016919 -0.02593962 0 1.018285 -0.0257878 0 1.019681 -0.02554878 0 1.021102 -0.02521679 0 1.022541 -0.02478643 0 1.023989 -0.0242528 0 1.025438 -0.02361162 0 1.026879 -0.02285944 0 1.028301 -0.02199372 0 1.029694 -0.02101297 0 1.031046 -0.01991693 0 1.032346 -0.01870665 0 1.033581 -0.01738459 0 1.03474 -0.01595468 0 1.035811 -0.01442238 0 1.036783 -0.01279469 0 1.037644 -0.01108008 0 1.038387 -0.009288435 0 1.039001 -0.00743094 0 1.039479 -0.005519925 0 1.039817 -0.003568666 0 1.040009 -0.001591168 0 1.040053 0.0003980866 0 1.03995 0.002384397 0 1.039699 0.004353116 0 1.039304 0.006289923 0 1.038771 0.008181075 0 1.038105 0.01001365 0 1.037314 0.01177576 0 1.036407 0.01345671 0 1.035394 0.01504717 0 1.034286 0.01653927 0 1.033095 0.01792661 0 1.031833 0.01920435 0 1.030511 0.02036914 0 1.029141 0.02141912 0 1.027735 0.02235375 0 1.026304 0.02317382 0 1.024859 0.02388124 0 1.023409 0.02447893 0 1.021964 0.02497071 0 1.020531 0.0253611 0 1.01912 0.02565523 0 1.017735 0.02585866 0 1.016383 0.0259773 0 1.015068 0.02601723 0 1.013795 0.02598467 0 1.012567 0.02588582 0 1.011386 0.0257268 0 1.010254 0.02551362 0 1.009173 0.02525205 0 1.008143 0.02494763 0 1.007164 0.02460563 0 1.006236 0.02423099 0 1.005359 0.02382832 0 1.004532 0.02340188 0 1.003754 0.02295557 0 1.003023 0.02249293 0 1.002338 0.02201717 0 1.001697 0.02153114 0 1.001099 0.02103741 0 1.000542 0.02053826 0 1.000023 0.02003577 0 0.9995422 0.01953185 0 0.9990965 0.01902833 0 0.9986842 0.018527 0 0.9983037 0.0180297 0 0.9979532 0.01753837 0 0.9976309 0.01705509 0 0.9973351 0.01658207 0 0.9970644 0.0161217 0 0.9968171 0.01567643 0 0.9965918 0.0152487 0 0.9963871 0.01484084 0 0.9962015 0.01445485 0 0.996034 0.01409224 0 0.9958832 0.0137538 0 0.995748 0.01343939 0 0.9956273 0.01314774 0 0.9955201 0.0128763 0 0.9954254 0.01262114 0 0.9953424 0.0123769 0 0.9952702 0.01213691 0 0.995208 0.0118933 0 0.995155 0.01163736 0 0.9951105 0.01135986 0 0.9950739 0.01105163 0 0.9950445 0.01070404 0 0.9950218 0.01030971 0 0.9950052 0.009863122 0 0.9949942 0.009361235 0 0.9949883 0.008804091 0 0.9949871 0.008195263 0 0.9949902 0.007542178 0 0.9949971 0.006856259 0 0.9950074 0.006152855 0 0.9950209 0.005450938 0 0.9950372 0.004772566 0 0.9950559 0.004142104 0 0.9950768 0.003585244 0 0.9950996 0.003127832 0 0.995124 0.002794568 0 0.9951498 0.002607623 0 0.9951768 0.002585256 0 0.9952047 0.00274048 0 0.9952333 0.00307987 0 0.9952624 0.003602584 0 0.9952918 0.004299653 0 0.9953214 0.005153607 0 0.9953509 0.006138482 0 0.9953803 0.007220232 0 0.9954093 0.008357552 0 0.9954377 0.009503116 0 0.9954656 0.01060518 0 0.9954927 0.01160951 0 0.9955189 0.01246159 0 0.9955441 0.01310893 0 0.9955681 0.01350355 0 0.995591 0.01360429 0 0.9956125 0.01337913 0 0.9956326 0.0128071 0 0.9956512 0.01187996 0 0.9956682 0.01060331 0 0.9956835 0.008997269 0 0.9956972 0.007096527 0 0.995709 0.004949779 0 0.995719 0.002618553 0 0.9957271 0.0001754364 0 0.9957333 -0.002298251 0 0.9957375 -0.004715258 0 0.9957397 -0.006985583 0 0.9957398 -0.009019913 0 0.9957379 -0.0107332 0 0.9957339 -0.0120482 0 0.9957277 -0.0128989 0 0.9957195 -0.01323356 0 0.9957091 -0.0130174 0 0.9956967 -0.01223462 0 0.9956821 -0.01088988 0 0.9956654 -0.009008863 0 0.9956466 -0.006638188 0 0.9956257 -0.003844414 0 0.9956028 -0.0007122615 0 0.9955778 0.002657928 0 0.9955508 0.006153419 0 0.9955218 0.00965289 0 0.9954909 0.01303068 0 0.995458 0.01616135 0 0.9954233 0.0189243 0 0.9953867 0.02120845 0 0.9953484 0.02291656 0 0.9953083 0.02396926 0 0.9952665 0.0243084 0 0.9952231 0.02389978 0 0.9951781 0.02273504 0 0.9951315 0.02083257 0 0.9950835 0.01823752 0 0.995034 0.0150208 0 0.9949832 0.01127709 0 0.994931 0.007121963 0 0.9948776 0.002688151 0 0.9948231 -0.00187884 0 0.9947674 -0.006425709 0 0.9947106 -0.01079669 0 0.9946529 -0.01483906 0 0.9945942 -0.01840867 0 1.002157 -0.02282956 0 1.002871 -0.02334219 0 1.003634 -0.0238424 0 1.004449 -0.02432655 0 1.005316 -0.02479065 0 1.006238 -0.02523035 0 1.007215 -0.02564091 0 1.008248 -0.02601722 0 1.009337 -0.02635382 0 1.010482 -0.02664488 0 1.011683 -0.02688427 0 1.012938 -0.02706554 0 1.014245 -0.02718204 0 1.015601 -0.02722692 0 1.017004 -0.02719324 0 1.018448 -0.02707405 0 1.019928 -0.0268625 0 1.021438 -0.02655198 0 1.022971 -0.02613622 0 1.024518 -0.02560947 0 1.02607 -0.02496667 0 1.027617 -0.02420358 0 1.029148 -0.02331695 0 1.03065 -0.02230474 0 1.032111 -0.02116621 0 1.033518 -0.01990211 0 1.034858 -0.01851478 0 1.036117 -0.01700823 0 1.037283 -0.01538822 0 1.038342 -0.01366224 0 1.039282 -0.01183951 0 1.040093 -0.009930897 0 1.040764 -0.007948756 0 1.041287 -0.005906781 0 1.041657 -0.003819773 0 1.041867 -0.001703383 0 1.041916 0.0004261759 0 1.041802 0.002552436 0 1.041528 0.004658994 0 1.041096 0.006729826 0 1.040513 0.008749587 0 1.039785 0.01070389 0 1.038921 0.01257955 0 1.037932 0.01436479 0 1.036829 0.0160494 0 1.035624 0.01762483 0 1.034331 0.01908428 0 1.032963 0.02042271 0 1.031532 0.02163676 0 1.030053 0.02272477 0 1.028538 0.02368658 0 1.027 0.02452348 0 1.02545 0.02523801 0 1.023898 0.02583383 0 1.022356 0.02631553 0 1.020831 0.02668847 0 1.019332 0.02695863 0 1.017865 0.02713243 0 1.016437 0.0272166 0 1.015053 0.02721804 0 1.013716 0.02714372 0 1.012429 0.02700055 0 1.011196 0.02679532 0 1.010017 0.02653462 0 1.008894 0.02622477 0 1.007828 0.02587179 0 1.006817 0.02548133 0 1.005863 0.02505869 0 1.004963 0.02460874 0 1.004117 0.02413595 0 1.003323 0.02364439 0 1.00258 0.0231377 0 1.001885 0.02261913 0 1.001238 0.02209155 0 1.000636 0.02155751 0 1.000076 0.0210193 0 0.9995578 0.02047899 0 0.9990782 0.01993853 0 0.9986354 0.0193998 0 0.9982275 0.01886477 0 0.9978523 0.01833548 0 0.9975081 0.01781418 0 0.9971929 0.01730334 0 0.9969049 0.01680562 0 0.9966425 0.01632389 0 0.996404 0.0158611 0 0.9961878 0.01542019 0 0.9959925 0.01500383 0 0.9958166 0.01461429 0 0.9956588 0.01425311 0 0.9955177 0.01392091 0 0.9953923 0.01361708 0 0.9952814 0.01333956 0 0.995184 0.01308473 0 0.995099 0.01284726 0 0.9950254 0.01262014 0 0.9949625 0.01239483 0 0.9949094 0.01216149 0 0.9948654 0.01190938 0 0.9948296 0.01162738 0 0.9948015 0.01130459 0 0.9947804 0.01093104 0 0.9947656 0.01049842 0 0.9947567 0.01000087 0 0.9947531 0.009435639 0 0.9947544 0.008803777 0 0.99476 0.008110565 0 0.9947696 0.007365849 0 0.9947826 0.006584115 0 0.9947989 0.005784322 0 0.9948179 0.004989469 0 0.9948394 0.004225889 0 0.9948629 0.003522281 0 0.9948884 0.002908525 0 0.9949153 0.002414289 0 0.9949436 0.002067526 0 0.9949729 0.001892895 0 0.9950029 0.001910203 0 0.9950335 0.002132941 0 0.9950645 0.002567007 0 0.9950955 0.003209675 0 0.9951266 0.004048909 0 0.9951573 0.005063053 0 0.9951877 0.006220964 0 0.9952175 0.007482592 0 0.9952465 0.008800031 0 0.9952747 0.010119 0 0.9953018 0.01138075 0 0.9953278 0.01252424 0 0.9953525 0.01348867 0 0.9953758 0.01421608 0 0.9953977 0.01465405 0 0.9954179 0.01475826 0 0.9954364 0.01449497 0 0.9954532 0.01384304 0 0.9954681 0.01279566 0 0.995481 0.01136147 0 0.995492 0.009565124 0 0.9955009 0.007447239 0 0.9955077 0.005063598 0 0.9955123 0.002483742 0 0.9955148 -0.0002111043 0 0.995515 -0.002930674 0 0.9955129 -0.005578804 0 0.9955085 -0.008056958 0 0.9955019 -0.010268 0 0.9954929 -0.01212005 0 0.9954816 -0.01353037 0 0.9954679 -0.0144289 0 0.995452 -0.01476157 0 0.9954337 -0.01449304 0 0.9954131 -0.01360878 0 0.9953902 -0.01211645 0 0.995365 -0.01004648 0 0.9953376 -0.007451703 0 0.995308 -0.004406211 0 0.9952762 -0.001003265 0 0.9952422 0.00264754 0 0.9952062 0.00642384 0 0.995168 0.01019466 0 0.9951279 0.01382502 0 0.9950858 0.01718081 0 0.9950418 0.02013375 0 0.9949959 0.02256631 0 0.9949482 0.0243763 0 0.9948988 0.025481 0 0.9948477 0.02582072 0 0.9947949 0.0253615 0 0.9947406 0.02409697 0 0.9946848 0.02204924 0 0.9946276 0.01926874 0 0.994569 0.01583297 0 0.9945092 0.01184434 0 0.9944481 0.007426943 0 0.9943859 0.00272257 0 0.9943226 -0.002114043 0 0.9942583 -0.006920498 0 0.994193 -0.01153239 0 0.9941269 -0.01578911 0 0.99406 -0.01953962 0 1.001669 -0.0234566 0 1.002392 -0.02401464 0 1.003167 -0.02456202 0 1.003997 -0.02509498 0 1.004884 -0.02560935 0 1.005829 -0.02610056 0 1.006835 -0.02656359 0 1.007901 -0.026993 0 1.009028 -0.02738294 0 1.010218 -0.02772712 0 1.011469 -0.02801888 0 1.01278 -0.02825118 0 1.014149 -0.02841668 0 1.015575 -0.02850781 0 1.017054 -0.02851681 0 1.018581 -0.02843587 0 1.02015 -0.02825722 0 1.021756 -0.0279733 0 1.02339 -0.02757686 0 1.025044 -0.02706119 0 1.026707 -0.02642025 0 1.028369 -0.02564889 0 1.030017 -0.02474307 0 1.031639 -0.02370001 0 1.03322 -0.0225184 0 1.034745 -0.02119859 0 1.036201 -0.01974271 0 1.037571 -0.01815482 0 1.038842 -0.01644094 0 1.039998 -0.01460912 0 1.041026 -0.01266938 0 1.041913 -0.01063367 0 1.042648 -0.008515654 0 1.043222 -0.00633058 0 1.043627 -0.004094983 0 1.043858 -0.001826401 0 1.043911 0.0004569712 0 1.043787 0.002736638 0 1.043486 0.004994181 0 1.043012 0.007211624 0 1.042373 0.009371792 0 1.041575 0.01145863 0 1.040631 0.0134575 0 1.03955 0.0153554 0 1.038347 0.01714114 0 1.037034 0.01880547 0 1.035628 0.02034117 0 1.034143 0.021743 0 1.032593 0.02300768 0 1.030994 0.02413382 0 1.029361 0.02512175 0 1.027705 0.02597337 0 1.026041 0.02669201 0 1.024381 0.02728217 0 1.022733 0.02774938 0 1.02111 0.02809998 0 1.019518 0.0283409 0 1.017964 0.02847955 0 1.016456 0.0285236 0 1.014998 0.02848085 0 1.013595 0.02835911 0 1.012248 0.02816609 0 1.010961 0.02790929 0 1.009735 0.02759594 0 1.00857 0.02723294 0 1.007467 0.02682678 0 1.006425 0.02638356 0 1.005444 0.02590888 0 1.004522 0.02540789 0 1.003658 0.02488527 0 1.00285 0.02434517 0 1.002096 0.02379132 0 1.001394 0.02322695 0 1.000742 0.02265494 0 1.000137 0.02207779 0 0.9995774 0.02149775 0 0.9990605 0.02091689 0 0.9985841 0.0203372 0 0.998146 0.0197607 0 0.9977439 0.01918955 0 0.9973756 0.01862613 0 0.9970392 0.01807311 0 0.9967326 0.01753346 0 0.9964538 0.01701045 0 0.9962011 0.01650758 0 0.9959726 0.01602841 0 0.9957668 0.01557642 0 0.995582 0.01515473 0 0.9954168 0.01476584 0 0.9952697 0.01441127 0 0.9951394 0.01409131 0 0.9950247 0.01380466 0 0.9949245 0.01354826 0 0.9948375 0.01331702 0 0.9947628 0.01310388 0 0.9946994 0.01289978 0 0.9946464 0.01269392 0 0.994603 0.0124741 0 0.9945684 0.01222723 0 0.9945418 0.01194 0 0.9945225 0.01159962 0 0.9945099 0.01119466 0 0.9945034 0.01071594 0 0.9945024 0.01015738 0 0.9945064 0.009516818 0 0.9945148 0.00879666 0 0.9945273 0.008004385 0 0.9945433 0.007152815 0 0.9945625 0.006260112 0 0.9945845 0.005349491 0 0.9946089 0.004448621 0 0.9946353 0.003588719 0 0.9946634 0.00280337 0 0.994693 0.002127099 0 0.9947237 0.001593746 0 0.9947553 0.001234731 0 0.9947875 0.001077267 0 0.99482 0.001142632 0 0.9948527 0.001444569 0 0.9948852 0.001987921 0 0.9949175 0.002767588 0 0.9949493 0.003767861 0 0.9949804 0.004962215 0 0.9950106 0.006313589 0 0.9950399 0.007775181 0 0.9950679 0.009291738 0 0.9950947 0.01080133 0 0.99512 0.01223755 0 0.9951437 0.01353204 0 0.9951658 0.01461732 0 0.995186 0.01542965 0 0.9952043 0.01591204 0 0.9952206 0.01601705 0 0.9952348 0.01570936 0 0.9952469 0.01496795 0 0.9952567 0.01378786 0 0.9952642 0.01218129 0 0.9952694 0.01017803 0 0.9952721 0.007825258 0 0.9952724 0.005186518 0 0.9952702 0.002340033 0 0.9952655 -0.0006236883 0 0.9952583 -0.003604849 0 0.9952485 -0.006497863 0 0.9952362 -0.009195235 0 0.9952213 -0.01159168 0 0.9952038 -0.01358834 0 0.9951838 -0.01509682 0 0.9951612 -0.0160431 0 0.9951361 -0.01637092 0 0.9951085 -0.0160446 0 0.9950784 -0.01505121 0 0.9950459 -0.01340184 0 0.995011 -0.01113206 0 0.9949737 -0.008301435 0 0.9949341 -0.004992046 0 0.9948922 -0.001306171 0 0.9948481 0.002636899 0 0.9948019 0.006704779 0 0.9947535 0.01075651 0 0.9947031 0.01464751 0 0.9946507 0.01823481 0 0.9945964 0.02138236 0 0.9945403 0.02396613 0 0.9944823 0.02587901 0 0.9944227 0.02703509 0 0.9943614 0.02737327 0 0.9942986 0.02686004 0 0.9942343 0.02549133 0 0.9941686 0.02329322 0 0.9941016 0.02032169 0 0.9940333 0.01666114 0 0.9939639 0.01242194 0 0.9938934 0.007736984 0 0.9938218 0.002757296 0 0.9937494 -0.002352994 0 0.993676 -0.007422285 0 0.993602 -0.01227747 0 0.9935272 -0.01675005 0 0.9934518 -0.02068214 0 1.00114 -0.02408955 0 1.001869 -0.02469575 0 1.002655 -0.02529339 0 1.003499 -0.02587856 0 1.004404 -0.02644695 0 1.005372 -0.02699376 0 1.006405 -0.02751371 0 1.007503 -0.02800102 0 1.008669 -0.02844944 0 1.009903 -0.0288522 0 1.011205 -0.02920208 0 1.012574 -0.02949142 0 1.014008 -0.02971214 0 1.015506 -0.02985586 0 1.017064 -0.02991395 0 1.018678 -0.02987763 0 1.020342 -0.0297381 0 1.02205 -0.02948672 0 1.023793 -0.02911513 0 1.025561 -0.02861548 0 1.027345 -0.02798063 0 1.029132 -0.02720437 0 1.030909 -0.02628164 0 1.032661 -0.02520881 0 1.034374 -0.02398386 0 1.03603 -0.0226066 0 1.037614 -0.02107887 0 1.039107 -0.0194047 0 1.040495 -0.01759038 0 1.041759 -0.0156445 0 1.042884 -0.01357799 0 1.043857 -0.01140395 0 1.044664 -0.009137567 0 1.045295 -0.006795828 0 1.04574 -0.004397258 0 1.045994 -0.001961554 0 1.046053 0.0004908063 0 1.045916 0.002938994 0 1.045585 0.005362267 0 1.045064 0.007740411 0 1.044362 0.01005415 0 1.043487 0.01228554 0 1.042452 0.01441828 0 1.041269 0.01643799 0 1.039954 0.01833243 0 1.038522 0.0200916 0 1.03699 0.02170781 0 1.035375 0.02317571 0 1.033695 0.02449215 0 1.031964 0.02565612 0 1.0302 0.02666857 0 1.028418 0.02753219 0 1.026631 0.02825122 0 1.024851 0.02883118 0 1.023092 0.02927871 0 1.021362 0.02960125 0 1.019671 0.02980687 0 1.018026 0.02990409 0 1.016434 0.02990163 0 1.0149 0.02980831 0 1.013427 0.02963288 0 1.012018 0.0293839 0 1.010676 0.02906967 0 1.009401 0.02869809 0 1.008195 0.02827667 0 1.007056 0.02781242 0 1.005984 0.02731184 0 1.004977 0.02678086 0 1.004035 0.02622488 0 1.003154 0.0256487 0 1.002334 0.02505657 0 1.001571 0.0244522 0 1.000863 0.02383881 0 1.000207 0.02321919 0 0.9996018 0.02259577 0 0.9990436 0.02197073 0 0.9985301 0.02134617 0 0.9980587 0.02072414 0 0.997627 0.02010688 0 0.9972325 0.01949684 0 0.996873 0.01889687 0 0.996546 0.0183102 0 0.9962495 0.0177405 0 0.9959814 0.0171918 0 0.9957398 0.01666837 0 0.9955227 0.01617456 0 0.9953285 0.01571446 0 0.9951555 0.01529167 0 0.995002 0.01490888 0 0.9948668 0.01456749 0 0.9947482 0.01426726 0 0.9946451 0.01400595 0 0.9945563 0.0137791 0 0.9944806 0.01357983 0 0.9944169 0.01339885 0 0.9943643 0.0132246 0 0.9943218 0.01304358 0 0.9942886 0.01284079 0 0.9942638 0.01260044 0 0.9942467 0.01230675 0 0.9942366 0.01194486 0 0.9942327 0.01150183 0 0.9942346 0.01096767 0 0.9942416 0.01033631 0 0.9942532 0.009606494 0 0.9942689 0.008782459 0 0.9942881 0.007874443 0 0.9943105 0.006898886 0 0.9943355 0.005878323 0 0.9943629 0.004840937 0 0.9943923 0.003819765 0 0.9944232 0.002851567 0 0.9944555 0.001975384 0 0.9944886 0.001230854 0 0.9945224 0.0006563255 0 0.9945566 0.0002868721 0 0.994591 0.0001522937 0 0.9946251 0.0002752034 0 0.994659 0.0006693036 0 0.9946922 0.001337951 0 0.9947247 0.0022731 0 0.9947562 0.003454702 0 0.9947865 0.004850619 0 0.9948154 0.006417087 0 0.9948429 0.00809975 0 0.9948687 0.009835234 0 0.9948927 0.01155324 0 0.9949148 0.01317909 0 0.9949349 0.01463656 0 0.9949528 0.0158511 0 0.9949684 0.01675295 0 0.9949817 0.01728048 0 0.9949925 0.01738315 0 0.9950009 0.01702425 0 0.9950067 0.01618327 0 0.9950098 0.01485753 0 0.9950102 0.01306332 0 0.995008 0.01083621 0 0.9950029 0.008230603 0 0.9949951 0.005318494 0 0.9949845 0.002187457 0 0.994971 -0.001062086 0 0.9949547 -0.004320233 0 0.9949356 -0.007471484 0 0.9949137 -0.010399 0 0.994889 -0.01298908 0 0.9948615 -0.01513566 0 0.9948312 -0.01674473 0 0.9947982 -0.01773833 0 0.9947625 -0.01805818 0 0.9947241 -0.01766856 0 0.9946832 -0.01655844 0 0.9946396 -0.01474277 0 0.9945936 -0.01226273 0 0.9945452 -0.009185047 0 0.9944943 -0.00560027 0 0.9944411 -0.001620144 0 0.9943857 0.002625933 0 0.9943281 0.006995194 0 0.9942685 0.01133639 0 0.9942067 0.01549513 0 0.9941431 0.01931945 0 0.9940776 0.0226654 0 0.9940102 0.0254025 0 0.9939412 0.0274188 0 0.9938706 0.02862531 0 0.9937985 0.02895972 0 0.9937249 0.02838922 0 0.9936499 0.02691225 0 0.9935737 0.02455917 0 0.9934963 0.02139177 0 0.9934179 0.01750161 0 0.9933384 0.01300727 0 0.993258 0.008050603 0 0.9931768 0.002792058 0 0.9930949 -0.002594735 0 0.9930123 -0.007928906 0 0.9929291 -0.01302863 0 0.9928455 -0.01771754 0 0.9927615 -0.02183099 0 1.000566 -0.02472662 0 1.001301 -0.02538383 0 1.002095 -0.02603489 0 1.002951 -0.02667582 0 1.003873 -0.02730215 0 1.004862 -0.02790887 0 1.00592 -0.02849046 0 1.007051 -0.0290408 0 1.008255 -0.02955323 0 1.009533 -0.03002048 0 1.010886 -0.03043477 0 1.012314 -0.03078774 0 1.013815 -0.03107055 0 1.015388 -0.03127395 0 1.017029 -0.03138832 0 1.018735 -0.03140382 0 1.020499 -0.03131052 0 1.022315 -0.03109853 0 1.024174 -0.03075824 0 1.026066 -0.03028048 0 1.02798 -0.02965683 0 1.029903 -0.02887981 0 1.031821 -0.02794319 0 1.033717 -0.02684228 0 1.035574 -0.02557415 0 1.037374 -0.02413795 0 1.0391 -0.02253511 0 1.040731 -0.02076953 0 1.042248 -0.01884771 0 1.043633 -0.016778